Na48 P16 S64
 1.00
 14.0604714183 0.0 -0.724582244677
 -8.68175761396e-16 14.17838616 8.68175761396e-16
 0.0 0.0 14.09722657
 Na P S
 48 16 64
direct
 0.98077600  0.26937400  0.24314400
 0.50116100  0.26497500  0.26484600
 0.70274300  0.50348400  0.21472100
 0.24865900  0.51422300  0.76933600
 0.75654500  0.99684900  0.22907900
 0.26765500  0.03005100  0.79555800
 0.98967400  0.76265400  0.00884500
 0.01859200  0.74318600  0.25212000
 0.96744100  0.75200800  0.54387200
 0.48011500  0.46920700  0.75950400
 0.46513800  0.00718000  0.26114900
 0.25538200  0.52030200  0.26114600
 0.94342500  0.50869100  0.23500900
 0.95505200  0.23820800  0.51901700
 0.25886200  0.53772000  0.54077900
 0.74100500  0.27555900  0.97974900
 0.29308400  0.75273000  0.01239900
 0.48905100  0.78830700  0.24482400
 0.25344900  0.51975700  0.02288600
 0.00334800  0.25009100  0.74010600
 0.48542400  0.15094500  0.75912900
 0.03011400  0.49697700  0.72293300
 0.58359100  0.23811200  0.52213800
 0.02477400  0.99574500  0.73584700
 0.76660300  0.55531100  0.00187500
 0.51214600  0.93788700  0.73636400
 0.76205900  0.30575100  0.47638700
 0.74163000  0.75328600  0.50477900
 0.02430200  0.01771000  0.27452300
 0.78323900  0.49699800  0.79175400
 0.73626200  0.53078600  0.47076100
 0.02949700  0.73135000  0.76514400
 0.50552000  0.68001800  0.80710300
 0.77185400  0.06778200  0.98625900
 0.79350300  0.81516400  0.00572000
 0.75210600  0.99245200  0.73468500
 0.50792500  0.26345500  0.01463300
 0.23973700  0.00781300  0.06213700
 0.18830300  0.76684300  0.49369000
 0.73594600  0.99737600  0.48376300
 0.23415500  0.00941800  0.30529800
 0.02169800  0.25557300  0.99312900
 0.26077000  0.26994400  0.98311500
 0.50279100  0.52018200  0.25330300
 0.54129000  0.79844200  0.99612800
 0.25932900  0.23943300  0.48921600
 0.50335000  0.76058300  0.47483600
 0.25695600  0.98580000  0.54967700
 0.49035400  0.98796300  0.50655300
 0.74869300  0.24658000  0.23856400
 0.25513500  0.76431600  0.74457800
 0.98978300  0.52124700  0.48209900
 0.51130400  0.02286800  0.00346100
 0.25319900  0.76471900  0.25955700
 0.23261500  0.25324400  0.72875100
 0.75741400  0.26091500  0.74725400
 0.51160700  0.51672800  0.99137000
 0.50940700  0.50606600  0.49755300
 0.98246800  0.00205000  0.49356300
 0.00309100  0.01757900  0.00516900
 0.76390400  0.74650000  0.74465700
 0.73426300  0.74921000  0.26396700
 0.25031800  0.24262000  0.24740900
 0.00422100  0.52204300  0.98768600
 0.14921700  0.85665200  0.18412700
 0.09556700  0.41929100  0.93646300
 0.93577800  0.60589600  0.89233400
 0.83278300  0.16098800  0.16785200
 0.91062100  0.93369800  0.08787900
 0.67254200  0.16203500  0.82630600
 0.67344400  0.16166400  0.33410300
 0.66688000  0.84322100  0.17578200
 0.58340300  0.08557900  0.11425700
 0.57081100  0.92675100  0.40553800
 0.05072100  0.89531900  0.41610200
 0.90301700  0.61267100  0.40635900
 0.41559300  0.11106400  0.93445300
 0.15967700  0.17455400  0.33181300
 0.67672800  0.82644900  0.65592500
 0.41732300  0.88424500  0.57597200
 0.33551800  0.66359000  0.18231500
 0.31132100  0.68954000  0.63712100
 0.39588000  0.07824700  0.43675100
 0.35150500  0.83807200  0.82787100
 0.58028300  0.40887400  0.40480200
 0.67675700  0.37064400  0.67841900
 0.82761300  0.35607400  0.31071600
 0.14799100  0.85779400  0.67974200
 0.34715400  0.33942100  0.32090200
 0.32591900  0.31918300  0.81005000
 0.42609400  0.42063600  0.57889400
 0.84690600  0.82781900  0.82232500
 0.91529300  0.08225300  0.40548700
 0.43273600  0.42892500  0.08292900
 0.93148500  0.10125800  0.91183200
 0.18102000  0.66122000  0.33562100
 0.07594400  0.07062600  0.57538200
 0.81366300  0.83434300  0.35359900
 0.09015600  0.59873600  0.57252800
 0.82342100  0.66733000  0.18331800
 0.10509100  0.92888300  0.95563000
 0.19269900  0.32831700  0.15026500
 0.59042100  0.43527200  0.90201600
 0.42170500  0.91373000  0.06525800
 0.40921000  0.59814500  0.41998800
 0.30875100  0.14731000  0.65594700
 0.06609700  0.60624300  0.08408200
 0.85988800  0.31997400  0.83512000
 0.15437000  0.32907200  0.62160400
 0.57827900  0.62705600  0.05910200
 0.64268800  0.65382800  0.32125500
 0.61539200  0.96314300  0.92094700
 0.90667000  0.43730000  0.55964400
 0.90879800  0.42787400  0.05793800
 0.15682300  0.18413100  0.82971200
 0.88416800  0.95217500  0.59669500
 0.83092500  0.17664200  0.65319200
 0.40817500  0.57449500  0.90658200
 0.32815700  0.84744200  0.34263600
 0.06060100  0.44563300  0.39068200
 0.18620700  0.66898000  0.83832700
 0.33020100  0.14208500  0.17947000
 0.66128100  0.33297800  0.14605600
 0.68209600  0.68028300  0.84372000
 0.60953500  0.57514900  0.58136200
 0.05014400  0.11469600  0.10458300
 0.58173900  0.05615100  0.60510100
 0.83091100  0.64034900  0.66340500

 29 29 29
 0.0000000000e+00  0.0000000000e+00  0.0000000000e+00  0.0000000000e+00  0.0000000000e+00
 0.0000000000e+00  0.0000000000e+00  2.0573141552e+02  1.7144284627e+01  0.0000000000e+00
 0.0000000000e+00  0.0000000000e+00  0.0000000000e+00  0.0000000000e+00  0.0000000000e+00
 0.0000000000e+00  0.0000000000e+00  0.0000000000e+00  0.0000000000e+00  0.0000000000e+00
 5.1432853880e+01  4.1146283104e+02  1.7144284627e+01  0.0000000000e+00  0.0000000000e+00
 0.0000000000e+00  0.0000000000e+00  0.0000000000e+00  0.0000000000e+00  0.0000000000e+00
 0.0000000000e+00  0.0000000000e+00  0.0000000000e+00  0.0000000000e+00  0.0000000000e+00
 5.1432853880e+01  4.2860711567e+02  1.3715427701e+02  0.0000000000e+00  0.0000000000e+00
 0.0000000000e+00  0.0000000000e+00  0.0000000000e+00  0.0000000000e+00  0.0000000000e+00
 0.0000000000e+00  0.0000000000e+00  0.0000000000e+00  0.0000000000e+00  0.0000000000e+00
 2.5716426940e+02  1.7144284627e+01  0.0000000000e+00  0.0000000000e+00  0.0000000000e+00
 0.0000000000e+00  0.0000000000e+00  0.0000000000e+00  0.0000000000e+00  0.0000000000e+00
 0.0000000000e+00  0.0000000000e+00  0.0000000000e+00  0.0000000000e+00  3.4288569254e+01
 1.0286570776e+02  0.0000000000e+00  0.0000000000e+00  0.0000000000e+00  0.0000000000e+00
 0.0000000000e+00  0.0000000000e+00  0.0000000000e+00  0.0000000000e+00  0.0000000000e+00
 0.0000000000e+00  0.0000000000e+00  0.0000000000e+00  0.0000000000e+00  3.4288569254e+01
 0.0000000000e+00  0.0000000000e+00  0.0000000000e+00  0.0000000000e+00  0.0000000000e+00
 0.0000000000e+00  0.0000000000e+00  0.0000000000e+00  0.0000000000e+00  0.0000000000e+00
 0.0000000000e+00  0.0000000000e+00  0.0000000000e+00  0.0000000000e+00  0.0000000000e+00
 0.0000000000e+00  0.0000000000e+00  0.0000000000e+00  0.0000000000e+00  0.0000000000e+00
 0.0000000000e+00  0.0000000000e+00  0.0000000000e+00  0.0000000000e+00  0.0000000000e+00
 0.0000000000e+00  0.0000000000e+00  0.0000000000e+00  0.0000000000e+00  0.0000000000e+00
 0.0000000000e+00  0.0000000000e+00  0.0000000000e+00  0.0000000000e+00  0.0000000000e+00
 0.0000000000e+00  0.0000000000e+00  0.0000000000e+00  0.0000000000e+00  0.0000000000e+00
 0.0000000000e+00  0.0000000000e+00  0.0000000000e+00  0.0000000000e+00  0.0000000000e+00
 0.0000000000e+00  0.0000000000e+00  0.0000000000e+00  0.0000000000e+00  0.0000000000e+00
 0.0000000000e+00  0.0000000000e+00  0.0000000000e+00  0.0000000000e+00  0.0000000000e+00
 0.0000000000e+00  0.0000000000e+00  0.0000000000e+00  0.0000000000e+00  0.0000000000e+00
 0.0000000000e+00  0.0000000000e+00  0.0000000000e+00  0.0000000000e+00  0.0000000000e+00
 0.0000000000e+00  0.0000000000e+00  0.0000000000e+00  0.0000000000e+00  0.0000000000e+00
 0.0000000000e+00  0.0000000000e+00  0.0000000000e+00  0.0000000000e+00  0.0000000000e+00
 0.0000000000e+00  0.0000000000e+00  0.0000000000e+00  0.0000000000e+00  0.0000000000e+00
 0.0000000000e+00  0.0000000000e+00  0.0000000000e+00  0.0000000000e+00  0.0000000000e+00
 3.4288569254e+01  0.0000000000e+00  0.0000000000e+00  0.0000000000e+00  0.0000000000e+00
 0.0000000000e+00  0.0000000000e+00  0.0000000000e+00  0.0000000000e+00  0.0000000000e+00
 0.0000000000e+00  1.7144284627e+01  0.0000000000e+00  0.0000000000e+00  1.7144284627e+01
 0.0000000000e+00  5.1432853880e+01  6.8577138507e+01  0.0000000000e+00  0.0000000000e+00
 0.0000000000e+00  3.4288569254e+01  1.7144284627e+01  1.7144284627e+01  0.0000000000e+00
 0.0000000000e+00  0.0000000000e+00  0.0000000000e+00  0.0000000000e+00  3.4288569254e+01
 0.0000000000e+00  1.7144284627e+01  0.0000000000e+00  0.0000000000e+00  0.0000000000e+00
 0.0000000000e+00  0.0000000000e+00  0.0000000000e+00  5.1432853880e+01  1.3715427701e+02
 3.4288569254e+01  0.0000000000e+00  0.0000000000e+00  1.2000999239e+02  8.5721423134e+01
 2.0573141552e+02  3.4288569254e+01  3.4288569254e+01  0.0000000000e+00  0.0000000000e+00
 1.3715427701e+02  1.7144284627e+02  2.2287570015e+02  1.7144284627e+02  1.7144284627e+01
 0.0000000000e+00  5.1432853880e+01  1.7144284627e+01  1.0286570776e+02  1.3715427701e+02
 3.0859712328e+02  0.0000000000e+00  0.0000000000e+00  0.0000000000e+00  1.2000999239e+02
 1.0286570776e+02  6.8577138507e+01  5.1432853880e+01  3.4288569254e+01  0.0000000000e+00
 0.0000000000e+00  0.0000000000e+00  1.7144284627e+01  5.1432853880e+01  3.6002997716e+02
 1.3715427701e+02  0.0000000000e+00  0.0000000000e+00  0.0000000000e+00  0.0000000000e+00
 3.4288569254e+01  1.0286570776e+02  3.4288569254e+01  3.4288569254e+01  0.0000000000e+00
 0.0000000000e+00  0.0000000000e+00  1.7144284627e+02  2.2287570015e+02  1.7144284627e+02
 1.7144284627e+01  0.0000000000e+00  0.0000000000e+00  1.7144284627e+01  0.0000000000e+00
 1.7144284627e+01  0.0000000000e+00  0.0000000000e+00  0.0000000000e+00  0.0000000000e+00
 0.0000000000e+00  0.0000000000e+00  5.1432853880e+01  1.7144284627e+02  6.8577138507e+01
 0.0000000000e+00  0.0000000000e+00  0.0000000000e+00  0.0000000000e+00  0.0000000000e+00
 0.0000000000e+00  0.0000000000e+00  0.0000000000e+00  0.0000000000e+00  0.0000000000e+00
 0.0000000000e+00  0.0000000000e+00  8.5721423134e+01  0.0000000000e+00  0.0000000000e+00
 0.0000000000e+00  0.0000000000e+00  0.0000000000e+00  0.0000000000e+00  0.0000000000e+00
 0.0000000000e+00  0.0000000000e+00  0.0000000000e+00  0.0000000000e+00  0.0000000000e+00
 0.0000000000e+00  0.0000000000e+00  0.0000000000e+00  0.0000000000e+00  0.0000000000e+00
 0.0000000000e+00  0.0000000000e+00  0.0000000000e+00  0.0000000000e+00  0.0000000000e+00
 0.0000000000e+00  0.0000000000e+00  0.0000000000e+00  0.0000000000e+00  0.0000000000e+00
 0.0000000000e+00  0.0000000000e+00  0.0000000000e+00  0.0000000000e+00  0.0000000000e+00
 0.0000000000e+00  0.0000000000e+00  0.0000000000e+00  0.0000000000e+00  0.0000000000e+00
 0.0000000000e+00  0.0000000000e+00  0.0000000000e+00  0.0000000000e+00  0.0000000000e+00
 0.0000000000e+00  0.0000000000e+00  0.0000000000e+00  0.0000000000e+00  0.0000000000e+00
 0.0000000000e+00  0.0000000000e+00  0.0000000000e+00  0.0000000000e+00  0.0000000000e+00
 0.0000000000e+00  0.0000000000e+00  0.0000000000e+00  0.0000000000e+00  0.0000000000e+00
 0.0000000000e+00  0.0000000000e+00  0.0000000000e+00  0.0000000000e+00  0.0000000000e+00
 0.0000000000e+00  0.0000000000e+00  0.0000000000e+00  0.0000000000e+00  0.0000000000e+00
 0.0000000000e+00  0.0000000000e+00  0.0000000000e+00  0.0000000000e+00  0.0000000000e+00
 0.0000000000e+00  0.0000000000e+00  0.0000000000e+00  0.0000000000e+00  0.0000000000e+00
 0.0000000000e+00  0.0000000000e+00  0.0000000000e+00  0.0000000000e+00  0.0000000000e+00
 0.0000000000e+00  0.0000000000e+00  0.0000000000e+00  0.0000000000e+00  0.0000000000e+00
 0.0000000000e+00  0.0000000000e+00  0.0000000000e+00  0.0000000000e+00  0.0000000000e+00
 0.0000000000e+00  0.0000000000e+00  0.0000000000e+00  0.0000000000e+00  0.0000000000e+00
 0.0000000000e+00  0.0000000000e+00  0.0000000000e+00  1.7144284627e+01  5.1432853880e+01
 0.0000000000e+00  0.0000000000e+00  0.0000000000e+00  0.0000000000e+00  0.0000000000e+00
 0.0000000000e+00  0.0000000000e+00  0.0000000000e+00  0.0000000000e+00  0.0000000000e+00
 0.0000000000e+00  0.0000000000e+00  0.0000000000e+00  8.5721423134e+01  1.7144284627e+01
 0.0000000000e+00  0.0000000000e+00  0.0000000000e+00  0.0000000000e+00  0.0000000000e+00
 0.0000000000e+00  0.0000000000e+00  0.0000000000e+00  0.0000000000e+00  0.0000000000e+00
 0.0000000000e+00  0.0000000000e+00  3.4288569254e+01  2.7430855403e+02  0.0000000000e+00
 0.0000000000e+00  0.0000000000e+00  0.0000000000e+00  0.0000000000e+00  0.0000000000e+00
 0.0000000000e+00  0.0000000000e+00  0.0000000000e+00  0.0000000000e+00  0.0000000000e+00
 0.0000000000e+00  0.0000000000e+00  2.4001998478e+02  3.4288569254e+01  0.0000000000e+00
 0.0000000000e+00  0.0000000000e+00  0.0000000000e+00  0.0000000000e+00  0.0000000000e+00
 0.0000000000e+00  0.0000000000e+00  0.0000000000e+00  0.0000000000e+00  0.0000000000e+00
 0.0000000000e+00  1.7144284627e+01  2.5716426940e+02  1.7144284627e+01  0.0000000000e+00
 0.0000000000e+00  0.0000000000e+00  0.0000000000e+00  0.0000000000e+00  0.0000000000e+00
 0.0000000000e+00  0.0000000000e+00  0.0000000000e+00  0.0000000000e+00  0.0000000000e+00
 3.4288569254e+01  1.0286570776e+02  0.0000000000e+00  0.0000000000e+00  0.0000000000e+00
 0.0000000000e+00  0.0000000000e+00  0.0000000000e+00  0.0000000000e+00  0.0000000000e+00
 0.0000000000e+00  0.0000000000e+00  0.0000000000e+00  0.0000000000e+00  0.0000000000e+00
 0.0000000000e+00  1.5429856164e+02  5.1432853880e+01  0.0000000000e+00  0.0000000000e+00
 0.0000000000e+00  0.0000000000e+00  0.0000000000e+00  0.0000000000e+00  0.0000000000e+00
 0.0000000000e+00  0.0000000000e+00  0.0000000000e+00  0.0000000000e+00  0.0000000000e+00
 5.1432853880e+01  5.1432853880e+01  0.0000000000e+00  0.0000000000e+00  0.0000000000e+00
 0.0000000000e+00  0.0000000000e+00  0.0000000000e+00  0.0000000000e+00  0.0000000000e+00
 0.0000000000e+00  0.0000000000e+00  0.0000000000e+00  0.0000000000e+00  0.0000000000e+00
 0.0000000000e+00  0.0000000000e+00  0.0000000000e+00  0.0000000000e+00  0.0000000000e+00
 0.0000000000e+00  0.0000000000e+00  0.0000000000e+00  0.0000000000e+00  0.0000000000e+00
 0.0000000000e+00  0.0000000000e+00  0.0000000000e+00  0.0000000000e+00  0.0000000000e+00
 0.0000000000e+00  0.0000000000e+00  0.0000000000e+00  0.0000000000e+00  0.0000000000e+00
 0.0000000000e+00  0.0000000000e+00  0.0000000000e+00  0.0000000000e+00  0.0000000000e+00
 0.0000000000e+00  0.0000000000e+00  0.0000000000e+00  0.0000000000e+00  0.0000000000e+00
 0.0000000000e+00  0.0000000000e+00  0.0000000000e+00  0.0000000000e+00  0.0000000000e+00
 0.0000000000e+00  0.0000000000e+00  0.0000000000e+00  0.0000000000e+00  0.0000000000e+00
 0.0000000000e+00  0.0000000000e+00  0.0000000000e+00  0.0000000000e+00  0.0000000000e+00
 0.0000000000e+00  0.0000000000e+00  0.0000000000e+00  0.0000000000e+00  0.0000000000e+00
 0.0000000000e+00  0.0000000000e+00  0.0000000000e+00  0.0000000000e+00  0.0000000000e+00
 0.0000000000e+00  0.0000000000e+00  0.0000000000e+00  0.0000000000e+00  0.0000000000e+00
 0.0000000000e+00  0.0000000000e+00  0.0000000000e+00  0.0000000000e+00  0.0000000000e+00
 0.0000000000e+00  0.0000000000e+00  0.0000000000e+00  0.0000000000e+00  0.0000000000e+00
 0.0000000000e+00  0.0000000000e+00  1.7144284627e+01  0.0000000000e+00  0.0000000000e+00
 0.0000000000e+00  0.0000000000e+00  0.0000000000e+00  0.0000000000e+00  0.0000000000e+00
 0.0000000000e+00  0.0000000000e+00  0.0000000000e+00  0.0000000000e+00  0.0000000000e+00
 0.0000000000e+00  5.1432853880e+01  3.4288569254e+01  0.0000000000e+00  0.0000000000e+00
 0.0000000000e+00  0.0000000000e+00  0.0000000000e+00  0.0000000000e+00  0.0000000000e+00
 0.0000000000e+00  0.0000000000e+00  0.0000000000e+00  0.0000000000e+00  0.0000000000e+00
 3.4288569254e+01  8.5721423134e+01  0.0000000000e+00  1.7144284627e+01  0.0000000000e+00
 0.0000000000e+00  0.0000000000e+00  0.0000000000e+00  1.7144284627e+01  5.1432853880e+01
 5.1432853880e+01  0.0000000000e+00  0.0000000000e+00  0.0000000000e+00  0.0000000000e+00
 1.0286570776e+02  1.7144284627e+02  5.1432853880e+01  0.0000000000e+00  0.0000000000e+00
 0.0000000000e+00  0.0000000000e+00  6.8577138507e+01  1.7144284627e+02  1.7144284627e+01
 0.0000000000e+00  0.0000000000e+00  0.0000000000e+00  0.0000000000e+00  1.3715427701e+02
 8.5721423134e+01  1.7144284627e+02  0.0000000000e+00  0.0000000000e+00  0.0000000000e+00
 1.7144284627e+01  1.3715427701e+02  1.0286570776e+02  6.8577138507e+01  1.0286570776e+02
 0.0000000000e+00  0.0000000000e+00  0.0000000000e+00  0.0000000000e+00  2.2287570015e+02
 4.4575140030e+02  1.5429856164e+02  5.1432853880e+01  0.0000000000e+00  0.0000000000e+00
 0.0000000000e+00  5.1432853880e+01  3.4288569254e+01  8.5721423134e+01  1.0286570776e+02
 0.0000000000e+00  0.0000000000e+00  1.7144284627e+01  1.5429856164e+02  2.2287570015e+02
 2.0573141552e+02  1.7144284627e+01  0.0000000000e+00  0.0000000000e+00  0.0000000000e+00
 1.7144284627e+01  1.0286570776e+02  0.0000000000e+00  0.0000000000e+00  0.0000000000e+00
 0.0000000000e+00  0.0000000000e+00  0.0000000000e+00  5.1432853880e+01  2.9145283866e+02
 1.2000999239e+02  0.0000000000e+00  0.0000000000e+00  0.0000000000e+00  0.0000000000e+00
 0.0000000000e+00  0.0000000000e+00  0.0000000000e+00  0.0000000000e+00  0.0000000000e+00
 0.0000000000e+00  0.0000000000e+00  0.0000000000e+00  1.2000999239e+02  1.2000999239e+02
 0.0000000000e+00  0.0000000000e+00  0.0000000000e+00  0.0000000000e+00  0.0000000000e+00
 0.0000000000e+00  0.0000000000e+00  0.0000000000e+00  0.0000000000e+00  0.0000000000e+00
 0.0000000000e+00  0.0000000000e+00  0.0000000000e+00  0.0000000000e+00  0.0000000000e+00
 0.0000000000e+00  0.0000000000e+00  0.0000000000e+00  0.0000000000e+00  0.0000000000e+00
 0.0000000000e+00  0.0000000000e+00  0.0000000000e+00  0.0000000000e+00  0.0000000000e+00
 0.0000000000e+00  0.0000000000e+00  0.0000000000e+00  0.0000000000e+00  0.0000000000e+00
 0.0000000000e+00  0.0000000000e+00  0.0000000000e+00  0.0000000000e+00  0.0000000000e+00
 0.0000000000e+00  0.0000000000e+00  0.0000000000e+00  0.0000000000e+00  0.0000000000e+00
 0.0000000000e+00  0.0000000000e+00  0.0000000000e+00  0.0000000000e+00  0.0000000000e+00
 0.0000000000e+00  0.0000000000e+00  0.0000000000e+00  0.0000000000e+00  0.0000000000e+00
 0.0000000000e+00  0.0000000000e+00  0.0000000000e+00  0.0000000000e+00  0.0000000000e+00
 0.0000000000e+00  0.0000000000e+00  0.0000000000e+00  0.0000000000e+00  0.0000000000e+00
 0.0000000000e+00  0.0000000000e+00  0.0000000000e+00  0.0000000000e+00  0.0000000000e+00
 0.0000000000e+00  0.0000000000e+00  0.0000000000e+00  0.0000000000e+00  0.0000000000e+00
 0.0000000000e+00  0.0000000000e+00  0.0000000000e+00  0.0000000000e+00  0.0000000000e+00
 0.0000000000e+00  0.0000000000e+00  0.0000000000e+00  0.0000000000e+00  0.0000000000e+00
 0.0000000000e+00  0.0000000000e+00  0.0000000000e+00  0.0000000000e+00  0.0000000000e+00
 0.0000000000e+00  0.0000000000e+00  0.0000000000e+00  0.0000000000e+00  0.0000000000e+00
 0.0000000000e+00  0.0000000000e+00  0.0000000000e+00  0.0000000000e+00  0.0000000000e+00
 0.0000000000e+00  0.0000000000e+00  0.0000000000e+00  0.0000000000e+00  0.0000000000e+00
 0.0000000000e+00  0.0000000000e+00  0.0000000000e+00  0.0000000000e+00  0.0000000000e+00
 0.0000000000e+00  0.0000000000e+00  0.0000000000e+00  0.0000000000e+00  0.0000000000e+00
 0.0000000000e+00  0.0000000000e+00  0.0000000000e+00  1.7144284627e+01  1.2000999239e+02
 0.0000000000e+00  0.0000000000e+00  0.0000000000e+00  0.0000000000e+00  0.0000000000e+00
 0.0000000000e+00  0.0000000000e+00  0.0000000000e+00  0.0000000000e+00  0.0000000000e+00
 0.0000000000e+00  0.0000000000e+00  0.0000000000e+00  0.0000000000e+00  6.8577138507e+01
 0.0000000000e+00  0.0000000000e+00  0.0000000000e+00  0.0000000000e+00  0.0000000000e+00
 0.0000000000e+00  0.0000000000e+00  0.0000000000e+00  0.0000000000e+00  0.0000000000e+00
 0.0000000000e+00  0.0000000000e+00  1.7144284627e+01  5.1432853880e+01  0.0000000000e+00
 0.0000000000e+00  0.0000000000e+00  0.0000000000e+00  0.0000000000e+00  0.0000000000e+00
 0.0000000000e+00  0.0000000000e+00  0.0000000000e+00  0.0000000000e+00  0.0000000000e+00
 0.0000000000e+00  0.0000000000e+00  3.4288569254e+01  2.7430855403e+02  0.0000000000e+00
 0.0000000000e+00  0.0000000000e+00  0.0000000000e+00  0.0000000000e+00  0.0000000000e+00
 0.0000000000e+00  0.0000000000e+00  0.0000000000e+00  0.0000000000e+00  0.0000000000e+00
 0.0000000000e+00  0.0000000000e+00  2.7430855403e+02  5.1432853880e+01  0.0000000000e+00
 0.0000000000e+00  0.0000000000e+00  0.0000000000e+00  0.0000000000e+00  0.0000000000e+00
 0.0000000000e+00  0.0000000000e+00  0.0000000000e+00  0.0000000000e+00  0.0000000000e+00
 0.0000000000e+00  5.1432853880e+01  3.7717426179e+02  6.8577138507e+01  0.0000000000e+00
 0.0000000000e+00  0.0000000000e+00  0.0000000000e+00  0.0000000000e+00  0.0000000000e+00
 0.0000000000e+00  0.0000000000e+00  0.0000000000e+00  0.0000000000e+00  0.0000000000e+00
 3.4288569254e+01  3.9431854642e+02  2.7430855403e+02  0.0000000000e+00  0.0000000000e+00
 0.0000000000e+00  0.0000000000e+00  0.0000000000e+00  0.0000000000e+00  0.0000000000e+00
 0.0000000000e+00  0.0000000000e+00  0.0000000000e+00  0.0000000000e+00  0.0000000000e+00
 0.0000000000e+00  1.7144284627e+01  0.0000000000e+00  0.0000000000e+00  0.0000000000e+00
 0.0000000000e+00  0.0000000000e+00  0.0000000000e+00  0.0000000000e+00  0.0000000000e+00
 0.0000000000e+00  0.0000000000e+00  0.0000000000e+00  0.0000000000e+00  0.0000000000e+00
 0.0000000000e+00  0.0000000000e+00  0.0000000000e+00  0.0000000000e+00  0.0000000000e+00
 0.0000000000e+00  0.0000000000e+00  0.0000000000e+00  0.0000000000e+00  0.0000000000e+00
 0.0000000000e+00  0.0000000000e+00  0.0000000000e+00  0.0000000000e+00  0.0000000000e+00
 0.0000000000e+00  0.0000000000e+00  0.0000000000e+00  0.0000000000e+00  0.0000000000e+00
 0.0000000000e+00  0.0000000000e+00  0.0000000000e+00  0.0000000000e+00  0.0000000000e+00
 0.0000000000e+00  0.0000000000e+00  0.0000000000e+00  0.0000000000e+00  0.0000000000e+00
 0.0000000000e+00  0.0000000000e+00  0.0000000000e+00  0.0000000000e+00  0.0000000000e+00
 0.0000000000e+00  0.0000000000e+00  0.0000000000e+00  0.0000000000e+00  0.0000000000e+00
 0.0000000000e+00  0.0000000000e+00  0.0000000000e+00  0.0000000000e+00  0.0000000000e+00
 0.0000000000e+00  0.0000000000e+00  0.0000000000e+00  0.0000000000e+00  0.0000000000e+00
 0.0000000000e+00  0.0000000000e+00  0.0000000000e+00  0.0000000000e+00  0.0000000000e+00
 0.0000000000e+00  0.0000000000e+00  0.0000000000e+00  0.0000000000e+00  0.0000000000e+00
 0.0000000000e+00  0.0000000000e+00  0.0000000000e+00  0.0000000000e+00  0.0000000000e+00
 0.0000000000e+00  0.0000000000e+00  0.0000000000e+00  0.0000000000e+00  0.0000000000e+00
 0.0000000000e+00  0.0000000000e+00  0.0000000000e+00  0.0000000000e+00  0.0000000000e+00
 0.0000000000e+00  0.0000000000e+00  0.0000000000e+00  0.0000000000e+00  0.0000000000e+00
 0.0000000000e+00  0.0000000000e+00  0.0000000000e+00  0.0000000000e+00  0.0000000000e+00
 0.0000000000e+00  0.0000000000e+00  0.0000000000e+00  0.0000000000e+00  0.0000000000e+00
 0.0000000000e+00  0.0000000000e+00  0.0000000000e+00  0.0000000000e+00  0.0000000000e+00
 0.0000000000e+00  0.0000000000e+00  0.0000000000e+00  0.0000000000e+00  0.0000000000e+00
 3.4288569254e+01  0.0000000000e+00  0.0000000000e+00  0.0000000000e+00  0.0000000000e+00
 0.0000000000e+00  0.0000000000e+00  0.0000000000e+00  1.7144284627e+01  1.7144284627e+01
 0.0000000000e+00  0.0000000000e+00  0.0000000000e+00  0.0000000000e+00  0.0000000000e+00
 0.0000000000e+00  0.0000000000e+00  0.0000000000e+00  0.0000000000e+00  0.0000000000e+00
 0.0000000000e+00  0.0000000000e+00  3.4288569254e+01  0.0000000000e+00  8.5721423134e+01
 1.0286570776e+02  1.7144284627e+01  0.0000000000e+00  0.0000000000e+00  0.0000000000e+00
 1.7144284627e+01  6.8577138507e+01  0.0000000000e+00  0.0000000000e+00  0.0000000000e+00
 0.0000000000e+00  1.5429856164e+02  1.3715427701e+02  2.2287570015e+02  8.5721423134e+01
 0.0000000000e+00  0.0000000000e+00  1.7144284627e+01  5.1432853880e+01  3.4288569254e+01
 1.7144284627e+01  1.3715427701e+02  0.0000000000e+00  0.0000000000e+00  0.0000000000e+00
 1.0286570776e+02  1.7144284627e+02  0.0000000000e+00  0.0000000000e+00  6.8577138507e+01
 3.4288569254e+01  0.0000000000e+00  0.0000000000e+00  5.1432853880e+01  3.4288569254e+01
 1.2000999239e+02  3.4288569254e+01  0.0000000000e+00  0.0000000000e+00  0.0000000000e+00
 0.0000000000e+00  5.1432853880e+01  1.0286570776e+02  6.8577138507e+01  0.0000000000e+00
 0.0000000000e+00  0.0000000000e+00  0.0000000000e+00  5.1432853880e+01  3.4288569254e+01
 3.4288569254e+01  0.0000000000e+00  0.0000000000e+00  0.0000000000e+00  0.0000000000e+00
 0.0000000000e+00  1.7144284627e+01  0.0000000000e+00  0.0000000000e+00  0.0000000000e+00
 0.0000000000e+00  0.0000000000e+00  0.0000000000e+00  0.0000000000e+00  1.7144284627e+01
 1.7144284627e+01  0.0000000000e+00  0.0000000000e+00  0.0000000000e+00  0.0000000000e+00
 0.0000000000e+00  0.0000000000e+00  0.0000000000e+00  0.0000000000e+00  0.0000000000e+00
 0.0000000000e+00  0.0000000000e+00  0.0000000000e+00  0.0000000000e+00  0.0000000000e+00
 0.0000000000e+00  0.0000000000e+00  0.0000000000e+00  0.0000000000e+00  0.0000000000e+00
 0.0000000000e+00  0.0000000000e+00  0.0000000000e+00  0.0000000000e+00  0.0000000000e+00
 0.0000000000e+00  0.0000000000e+00  0.0000000000e+00  0.0000000000e+00  0.0000000000e+00
 0.0000000000e+00  0.0000000000e+00  0.0000000000e+00  0.0000000000e+00  0.0000000000e+00
 0.0000000000e+00  0.0000000000e+00  0.0000000000e+00  0.0000000000e+00  0.0000000000e+00
 0.0000000000e+00  0.0000000000e+00  0.0000000000e+00  0.0000000000e+00  0.0000000000e+00
 0.0000000000e+00  0.0000000000e+00  0.0000000000e+00  0.0000000000e+00  0.0000000000e+00
 0.0000000000e+00  0.0000000000e+00  0.0000000000e+00  0.0000000000e+00  0.0000000000e+00
 0.0000000000e+00  0.0000000000e+00  0.0000000000e+00  0.0000000000e+00  0.0000000000e+00
 0.0000000000e+00  0.0000000000e+00  0.0000000000e+00  0.0000000000e+00  0.0000000000e+00
 0.0000000000e+00  0.0000000000e+00  0.0000000000e+00  0.0000000000e+00  0.0000000000e+00
 0.0000000000e+00  0.0000000000e+00  0.0000000000e+00  0.0000000000e+00  0.0000000000e+00
 0.0000000000e+00  0.0000000000e+00  0.0000000000e+00  0.0000000000e+00  0.0000000000e+00
 0.0000000000e+00  0.0000000000e+00  0.0000000000e+00  0.0000000000e+00  0.0000000000e+00
 0.0000000000e+00  0.0000000000e+00  0.0000000000e+00  0.0000000000e+00  0.0000000000e+00
 0.0000000000e+00  0.0000000000e+00  0.0000000000e+00  0.0000000000e+00  0.0000000000e+00
 0.0000000000e+00  0.0000000000e+00  0.0000000000e+00  0.0000000000e+00  0.0000000000e+00
 0.0000000000e+00  0.0000000000e+00  0.0000000000e+00  0.0000000000e+00  0.0000000000e+00
 0.0000000000e+00  0.0000000000e+00  0.0000000000e+00  0.0000000000e+00  0.0000000000e+00
 0.0000000000e+00  0.0000000000e+00  0.0000000000e+00  0.0000000000e+00  5.1432853880e+01
 3.4288569254e+01  0.0000000000e+00  0.0000000000e+00  0.0000000000e+00  0.0000000000e+00
 0.0000000000e+00  0.0000000000e+00  0.0000000000e+00  0.0000000000e+00  0.0000000000e+00
 0.0000000000e+00  0.0000000000e+00  0.0000000000e+00  0.0000000000e+00  0.0000000000e+00
 0.0000000000e+00  0.0000000000e+00  0.0000000000e+00  0.0000000000e+00  0.0000000000e+00
 0.0000000000e+00  0.0000000000e+00  0.0000000000e+00  0.0000000000e+00  0.0000000000e+00
 0.0000000000e+00  0.0000000000e+00  0.0000000000e+00  0.0000000000e+00  2.9145283866e+02
 3.4288569254e+01  0.0000000000e+00  0.0000000000e+00  0.0000000000e+00  0.0000000000e+00
 0.0000000000e+00  0.0000000000e+00  0.0000000000e+00  0.0000000000e+00  0.0000000000e+00
 0.0000000000e+00  0.0000000000e+00  0.0000000000e+00  3.2574140791e+02  0.0000000000e+00
 0.0000000000e+00  0.0000000000e+00  0.0000000000e+00  0.0000000000e+00  0.0000000000e+00
 0.0000000000e+00  0.0000000000e+00  0.0000000000e+00  0.0000000000e+00  0.0000000000e+00
 0.0000000000e+00  0.0000000000e+00  5.1432853880e+01  2.9145283866e+02  3.4288569254e+01
 0.0000000000e+00  0.0000000000e+00  0.0000000000e+00  0.0000000000e+00  0.0000000000e+00
 0.0000000000e+00  0.0000000000e+00  0.0000000000e+00  0.0000000000e+00  0.0000000000e+00
 0.0000000000e+00  0.0000000000e+00  1.7144284627e+02  3.4288569254e+01  0.0000000000e+00
 0.0000000000e+00  0.0000000000e+00  0.0000000000e+00  0.0000000000e+00  0.0000000000e+00
 0.0000000000e+00  0.0000000000e+00  0.0000000000e+00  0.0000000000e+00  0.0000000000e+00
 0.0000000000e+00  0.0000000000e+00  1.0286570776e+02  6.8577138507e+01  0.0000000000e+00
 0.0000000000e+00  0.0000000000e+00  0.0000000000e+00  0.0000000000e+00  0.0000000000e+00
 0.0000000000e+00  0.0000000000e+00  0.0000000000e+00  0.0000000000e+00  0.0000000000e+00
 0.0000000000e+00  0.0000000000e+00  0.0000000000e+00  0.0000000000e+00  0.0000000000e+00
 0.0000000000e+00  0.0000000000e+00  0.0000000000e+00  0.0000000000e+00  0.0000000000e+00
 0.0000000000e+00  0.0000000000e+00  0.0000000000e+00  0.0000000000e+00  0.0000000000e+00
 0.0000000000e+00  0.0000000000e+00  0.0000000000e+00  0.0000000000e+00  0.0000000000e+00
 0.0000000000e+00  0.0000000000e+00  0.0000000000e+00  0.0000000000e+00  0.0000000000e+00
 0.0000000000e+00  0.0000000000e+00  0.0000000000e+00  0.0000000000e+00  0.0000000000e+00
 0.0000000000e+00  0.0000000000e+00  0.0000000000e+00  0.0000000000e+00  0.0000000000e+00
 0.0000000000e+00  0.0000000000e+00  0.0000000000e+00  0.0000000000e+00  0.0000000000e+00
 0.0000000000e+00  0.0000000000e+00  0.0000000000e+00  0.0000000000e+00  0.0000000000e+00
 0.0000000000e+00  0.0000000000e+00  0.0000000000e+00  0.0000000000e+00  0.0000000000e+00
 0.0000000000e+00  0.0000000000e+00  0.0000000000e+00  0.0000000000e+00  0.0000000000e+00
 0.0000000000e+00  0.0000000000e+00  0.0000000000e+00  0.0000000000e+00  0.0000000000e+00
 0.0000000000e+00  0.0000000000e+00  0.0000000000e+00  0.0000000000e+00  0.0000000000e+00
 0.0000000000e+00  0.0000000000e+00  0.0000000000e+00  0.0000000000e+00  0.0000000000e+00
 0.0000000000e+00  0.0000000000e+00  0.0000000000e+00  0.0000000000e+00  0.0000000000e+00